LAMMPS data file via write_data, version 19 Nov 2024, timestep = 25790, units = real

2063 atoms
8 atom types
1394 bonds
7 bond types
772 angles
8 angle types
116 dihedrals
4 dihedral types

-21.67781229472713 21.67781229472713 xlo xhi
-11.128071838990754 11.128071838990754 ylo yhi
-11.128071838990754 11.128071838990754 zlo zhi

Atom Type Labels

1 OE
2 C
3 HC
4 H
5 CPos
6 OAlc
7 OW
8 HW

Bond Type Labels

1 g4
2 g18
3 g26
4 g27
5 g56
6 g71
7 OW-HW

Angle Type Labels

1 g12
2 g13
3 g14
4 g15
5 g51
6 g56
7 g102
8 HW-OW-HW

Dihedral Type Labels

1 g23
2 g34
3 g46
4 glj14

Masses

1 15.9994
2 12.011
3 1.008
4 1.008
5 12.011
6 15.9994
7 15.9994
8 1.008

Pair Coeffs # lj/cut/coul/long

1 0.2526 2.8492
2 0.0663 3.5812
3 0.0283 2.3734
4 0 0
5 0.245 2.8114
6 0.1195 3.1
7 0.155 3.165
8 0 0

Bond Coeffs # harmonic

1 1109.29 1.12
2 399.792 1.43
3 299.844 1.52
4 400.034 1.53
5 310.707 1.41
6 179.254 0.971
7 529.581 1.012

Angle Coeffs # harmonic

1 47.694 109.5
2 55.1271 109.5
3 47.635 109.6
4 55.1139 111
5 54.9931 110.3
6 180.46 109
7 30.1731 110
8 37.95 113.24

Dihedral Coeffs # harmonic

1 0.3011 1 3
2 1.4149 1 3
3 0.239 -1 3
4 0 1 1

Atoms # full

1018 340 7 -0.82 -14.222612113216242 -7.324562556191878 -7.126475440761447 0 0 0
1020 340 8 0.41 -13.524618816264953 -7.599248186598109 -6.4323368167210475 0 0 0
112 38 7 -0.82 -15.478998814062297 -4.888600407655204 11.034138581820784 1 1 -1
52 18 7 -0.82 -19.048613280380103 -9.829021712361682 -9.19668094064049 1 1 0
53 18 8 0.41 -19.823278391428776 -10.500864693196265 -9.333291902106478 1 1 0
54 18 8 0.41 -18.098863897262255 -10.19351402175021 -9.34352884836884 1 1 0
1019 340 8 0.41 -14.828130483159107 -6.563334100535521 -6.800421641286363 0 0 0
344 115 8 0.41 -17.251734011126715 -10.760290458279481 -5.905883994211482 1 0 1
113 38 8 0.41 -15.338898752165065 -5.594027246760504 -10.4747486353327 1 1 0
2005 669 7 -0.82 -16.43681442679494 -9.404983429980154 -6.681239365563166 0 0 0
2007 669 8 0.41 -17.031695746296705 -8.70928149147745 -6.247086333495014 0 0 0
75 25 8 0.41 -16.09686686221473 10.869662937742044 -9.715393206726826 1 0 0
1197 399 8 0.41 -16.752859596419462 -4.56254195489823 -6.962441756693651 0 0 0
1039 347 7 -0.82 -20.41569531182992 -6.1889481131898885 -9.396624508167681 1 0 1
2006 669 8 0.41 -15.94973802789686 -9.016485820165185 -7.494611623681537 0 0 0
158 53 8 0.41 -17.104591334085242 -7.724463199016889 -9.625555658971102 1 0 1
157 53 7 -0.82 -17.934774771546216 -7.449503075338106 -10.147691199161022 1 0 1
159 53 8 0.41 -18.589596509323382 -8.244343794451376 -10.012013727422438 1 0 1
74 25 8 0.41 -15.428394663930593 -9.988358012266044 -10.261583828289705 1 1 0
73 25 7 -0.82 -16.026972609106394 -10.399866322568256 -9.536527414470122 1 1 0
1836 612 8 0.41 -14.669149312460242 -8.317049289613609 -10.923040765367372 1 1 1
114 38 8 0.41 -16.33450806669294 -5.0747119076765275 10.462180822661162 1 1 -1
136 46 7 -0.82 -20.050702064472762 -5.175681055231879 -5.717031407530884 0 0 0
138 46 8 0.41 -20.48364777616621 -5.4259665485488275 -6.622731176843735 0 0 0
590 197 8 0.41 -17.79846462673015 -6.525785013982677 -6.9089492324294435 0 0 0
589 197 7 -0.82 -17.070978278168614 -6.0139038164097895 -6.364749411089119 0 0 0
591 197 8 0.41 -17.084844259421693 -6.420159100047151 -5.42409959036526 0 0 0
1719 573 8 0.41 -15.835866361006932 -7.771035463653218 -2.001281646896242 0 0 0
339 113 8 0.41 -19.550592228679218 -6.64088630541984 -5.22661938963082 1 0 0
1461 487 8 0.41 -18.94433480372664 -8.572888787750777 -7.981009951799052 0 0 1
1459 487 7 -0.82 -18.895882890400884 -7.629049657652281 -7.569882623379366 0 0 1
1834 612 7 -0.82 -14.408399160973847 -9.134636643357027 10.745776057294707 1 1 0
1587 529 8 0.41 -13.715940386649436 -6.96383971501184 -10.046445849364444 1 1 0
1585 529 7 -0.82 -14.701830942110458 -7.1189069657212185 -9.746064421180357 1 1 0
1586 529 8 0.41 -14.564399182227726 -7.291994781238585 -8.735521731809543 1 1 0
1555 519 7 -0.82 -10.833023791299192 -6.981588486040002 -7.976656284827714 1 1 1
1557 519 8 0.41 -10.971241610072811 -6.904342244041673 -6.9697237551614535 1 1 1
1169 390 8 0.41 -11.77873103785685 -5.913070785495681 11.037169873658193 0 1 0
250 84 7 -0.82 -8.571994625959466 -10.654496006626763 -4.829720229057909 0 1 1
1785 595 8 0.41 -10.29149040817989 -8.016373329244093 -5.2494083363904265 0 1 1
1784 595 8 0.41 -8.860162414311086 -8.839943987565928 -5.578015933369051 0 1 1
1783 595 7 -0.82 -9.341116581949182 -7.935011478429367 -5.587365837072092 0 1 1
1556 519 8 0.41 -11.652773671975416 -6.797831341986955 -8.558446300755365 1 1 1
1872 624 8 0.41 -9.599199268997841 -9.240485805146653 -9.42476858735435 0 0 1
1870 624 7 -0.82 -9.148210977029562 -8.897431576616958 -8.579326227267856 0 0 1
1871 624 8 0.41 -9.749956778248881 -8.092877292724403 -8.304834586069951 0 0 1
622 208 7 -0.82 -12.219699608803918 -8.702499976481555 -5.157169012202795 1 1 1
471 157 8 0.41 -12.21335778798238 -4.409274433924926 -4.360510919642732 0 1 0
469 157 7 -0.82 -12.789014051318809 -4.461595806857285 -5.2258278738569395 0 1 0
470 157 8 0.41 -12.251815164643112 -4.079212385729891 -6.011601977946942 0 1 0
1058 353 8 0.41 -9.471696691596097 -6.090104780055504 -8.75447520739914 1 1 1
321 107 8 0.41 -7.7102725884125025 -10.946492100118233 -9.873154802832392 0 0 0
1059 353 8 0.41 -8.452886947968556 -5.109262697679511 -7.923909858160979 1 1 1
624 208 8 0.41 -12.808084075839854 -8.350290539015113 -4.360713536576846 1 1 1
623 208 8 0.41 -12.383284614159715 -9.747359170784122 -5.248792328827533 1 1 1
1607 536 8 0.41 -12.681481556501017 10.58817538609612 -4.191789211561326 1 0 1
1606 536 7 -0.82 -12.812568662961288 11.048914934656919 -5.11509404794934 1 0 1
1208 403 8 0.41 -11.484618637896597 -10.6084095416268 10.791282292326065 0 1 0
1207 403 7 -0.82 -12.243637365216454 -11.036071537723341 10.233964638486258 0 1 0
1057 353 7 -0.82 -8.655698507871323 -5.45899903971297 -8.879953024562678 1 1 1
1712 571 8 0.41 -10.083170762378893 -4.373918783574082 -6.7445959541266545 0 0 0
545 182 8 0.41 -8.211338867028642 -4.835319346338154 -5.590935661907516 1 1 0
319 107 7 -0.82 -7.652145460706365 -10.413570047879354 -10.751333196884067 0 0 0
320 107 8 0.41 -6.7265405034537515 -10.008630782821623 -10.91194822665272 0 0 0
2094 698 8 0.41 -2.7807086720253515 -9.721703429595838 -6.6232396654625125 0 1 0
334 112 7 -0.82 -6.53163757295296 -9.1058057595643 -7.926651413353685 0 1 1
2092 698 7 -0.82 -1.9691788558152086 -9.138966262223253 -6.417484060037869 0 1 0
1549 517 7 -0.82 -6.123975400174617 -6.781373111932422 -6.717931170267876 0 0 0
1551 517 8 0.41 -6.184567168785657 -7.645696079095707 -7.251491206664792 0 0 0
1550 517 8 0.41 -6.266197369529522 -6.0486849658251876 -7.4213002835469695 0 0 0
504 168 8 0.41 -7.128828519390014 -5.769956314380758 -9.518906760535902 0 0 1
502 168 7 -0.82 -6.111029999977347 -5.933445009059809 -9.673905853113 0 0 1
503 168 8 0.41 -5.74803026315565 -4.980155217294478 -9.751552238524438 0 0 1
1548 516 8 0.41 -2.181529636510934 -6.232170071608815 -10.051786460012714 0 0 0
1401 467 8 0.41 -6.3481060281651 -6.698377758805211 -5.023140964690688 0 0 1
1546 516 7 -0.82 -1.5918617796613292 -6.662856492962975 -10.78198314819619 0 0 0
1697 566 8 0.41 -3.4392255565041516 -7.471915544262513 -4.240256738479585 0 0 0
110 37 8 0.41 -4.274426958516621 -5.7829322543443835 -8.802773300890998 0 0 0
109 37 7 -0.82 -3.322975001411404 -5.473800472890871 -8.996804858653254 0 0 0
520 174 7 -0.82 -5.408674457732268 -8.524118305837574 -10.93988181492485 0 1 1
521 174 8 0.41 -4.442419962998798 -8.81112375137023 -10.653200904254149 0 1 1
522 174 8 0.41 -5.796220189035163 -7.7660951792589055 -10.394662143128345 0 1 1
2093 698 8 0.41 -2.407228500785582 -8.18190936267823 -6.226069126335637 0 1 0
538 180 7 -0.82 -2.964090240351773 -9.020601164450525 -10.157405042874355 0 0 1
539 180 8 0.41 -2.5433205093738245 -9.871303303966787 -10.556943613552972 0 0 1
258 86 8 0.41 -9.193671568240603 -9.68395701805503 11.033052857372509 0 1 0
998 333 8 0.41 -0.20966368180593187 -10.968949007671915 -10.355165684526924 0 1 1
997 333 7 -0.82 -0.36428153458952317 -10.087885050635096 -10.830203666030396 0 1 1
536 179 8 0.41 -0.5407644386543675 -8.732870223914013 -6.726772018050622 0 1 0
858 286 8 0.41 -3.100908881350726 -6.371414786637383 -7.132439657615745 0 1 0
856 286 7 -0.82 -3.2197074785601316 -6.818516236295669 -6.209030620515094 0 1 0
857 286 8 0.41 -4.065339907333016 -6.334536707536214 -5.885655481252611 0 1 0
1547 516 8 0.41 -0.5689409231191116 -6.548247865552424 -10.650945295401737 0 0 0
1572 524 8 0.41 -8.068953099518476 -4.3225460348061935 -10.317448510740686 0 0 0
111 37 8 0.41 -3.191914816811938 -4.580237139117119 -9.493111880549272 0 0 0
544 182 7 -0.82 -8.811429166472218 -5.289187000555619 -6.286351706401162 1 1 0
546 182 8 0.41 -8.760608468708854 -6.294393221794112 -6.062754958942199 1 1 0
256 86 7 -0.82 -10.075751640111891 -9.21352535295707 10.788428614155235 0 1 0
537 179 8 0.41 0.3604973676032939 -7.900405117982941 -7.76359737622774 0 1 0
535 179 7 -0.82 0.46225405700017297 -8.476775984755179 -6.92105453817972 0 1 0
913 305 7 -0.82 1.4589938291918612 11.049507004322786 -7.100177358463421 0 0 0
915 305 8 0.41 0.901770726999352 -10.362367904182504 -7.210681021235043 0 1 0
422 141 8 0.41 1.9402392417205367 -8.399058623901634 -3.3930723748213767 0 1 0
421 141 7 -0.82 1.1439668657701565 -8.612628534436956 -4.024219864079834 0 1 0
423 141 8 0.41 1.3982223285250404 -8.424553405466781 -5.006681904017715 0 1 0
1161 387 8 0.41 0.2594786563186948 -4.868486385112591 9.279238887606974 0 0 -1
914 305 8 0.41 1.4547277886748515 10.471663393786775 -7.963169279778633 0 0 0
664 222 7 -0.82 1.0001833322838036 -8.125855812935338 -10.056588947516728 0 0 1
665 222 8 0.41 0.31546280197582255 -8.778451792555451 -10.467638342123147 0 0 1
1159 387 7 -0.82 0.8927340937937414 -4.596525621330221 10.032874930431761 0 0 -1
666 222 8 0.41 1.7189661652493198 -8.064902002640647 -10.827387550119992 0 0 1
215 72 8 0.41 2.3844808743249573 -6.73408458130688 -7.716279327890611 0 0 0
214 72 7 -0.82 1.947474282840474 -6.165181007984686 -8.425034974577956 0 0 0
774 258 8 0.41 3.843813335020428 10.858077643916507 -5.540216918209902 0 -1 0
772 258 7 -0.82 3.676256877461352 -10.474828344846198 -5.104303331170974 0 0 0
486 162 8 0.41 1.7399290127762475 -2.87644051337126 -6.275971900956374 0 0 0
216 72 8 0.41 1.6698445387347502 -6.818274517854582 -9.176089193652567 0 0 0
1305 435 8 0.41 1.719496121776469 9.903406789477996 -5.9869677971350015 0 -1 0
1304 435 8 0.41 1.3222991380517966 9.562228567628251 -4.403282427013122 0 -1 0
484 162 7 -0.82 1.0120166644273885 -2.8509121876871264 -5.570438289746231 0 0 0
648 216 8 0.41 2.1763259402462403 9.401897396913219 -9.899562048695 0 0 1
1808 603 8 0.41 2.6221527025307836 -1.2275535281001053 -2.5254232688453158 0 1 0
773 258 8 0.41 2.914114691553216 -10.642063810603661 -4.42620206346526 0 0 0
2073 691 8 0.41 1.0593694937324931 -4.348787408078206 -10.339266391363184 0 0 0
485 162 8 0.41 1.1414988387765168 -3.7406914818400026 -5.06654279120698 0 0 0
1012 338 7 -0.82 1.3419657409349772 -5.564784294984074 -4.930898781448377 0 0 0
1014 338 8 0.41 1.949777981225523 -5.690714712652482 -4.1256876256305475 0 0 0
1013 338 8 0.41 0.9068531242414257 -6.475622934935094 -5.000735350100811 0 0 0
1807 603 7 -0.82 3.1298699714449008 -2.058643653603279 -2.829540288491472 0 1 0
1800 600 8 0.41 4.0854377079135205 -6.135541546371311 -5.596517199554095 0 0 0
1798 600 7 -0.82 4.354452693201807 -5.308331102372757 -5.104158586428367 0 0 0
1799 600 8 0.41 3.9482044620820176 -5.385403786029392 -4.161285387328855 0 0 0
647 216 8 0.41 0.49384574346558785 9.17859217505861 -9.932790744612628 0 0 1
646 216 7 -0.82 1.264740380730714 9.817660063306151 -9.682525199631465 0 0 1
408 136 8 0.41 2.947076945122319 -10.243772745015892 -8.700603100416997 0 0 0
406 136 7 -0.82 3.936326526715572 -10.023547764629946 -8.671065546806366 0 0 0
407 136 8 0.41 4.0946910432297585 -9.971831856303568 -7.649356631828178 0 0 0
1832 611 8 0.41 7.852984644039818 -6.024586437167475 -6.124589754470832 0 1 1
1261 421 7 -0.82 8.056530210946182 10.181344267634556 -8.913004214908119 0 0 0
1263 421 8 0.41 7.538026339671028 10.921527079847221 -9.382998010489619 0 0 0
364 122 7 -0.82 3.328270361809391 -3.0756071772583438 -7.290201195380055 0 0 0
1046 349 8 0.41 8.148932401042003 -3.6954382698975463 -8.804313175768057 0 0 0
494 165 8 0.41 5.531253203605779 -10.187811817340833 -9.632597276635762 0 0 1
1831 611 7 -0.82 8.25242816928722 -6.526932962931285 -6.91518393910742 0 1 1
1833 611 8 0.41 8.287904320472396 -5.803705740363841 -7.637790174207721 0 1 1
366 122 8 0.41 2.9881104590936367 -3.6001603343455786 -8.097959174009274 0 0 0
1262 421 8 0.41 8.872201454743387 9.901528978145725 -9.485338582270103 0 0 0
1045 349 7 -0.82 8.50972536094103 -4.624168664586585 -8.988143121194513 0 0 0
1047 349 8 0.41 9.51134386390384 -4.437333320632277 -9.16041533079567 0 0 0
1917 639 8 0.41 7.599754296441418 -4.819615929011103 -4.068226010650546 0 0 1
1916 639 8 0.41 6.323014201456605 -4.752224214907956 -5.114155491857715 0 0 1
1915 639 7 -0.82 7.3399361337992985 -4.652396067600523 -5.0338548463989365 0 0 1
1809 603 8 0.41 2.7137606715337803 -2.989366703682669 -2.8193455823686158 0 1 0
1259 420 8 0.41 7.930748214852507 -8.005001575038104 -6.014911323890964 0 0 0
558 186 8 0.41 12.246369809708622 -8.433433295840706 -2.263539672498842 0 1 0
1258 420 7 -0.82 7.5336764592183165 -8.807414544588893 -5.47281480273755 0 0 0
1260 420 8 0.41 8.295006078136048 -9.025343281685867 -4.806715134176189 0 0 0
326 109 8 0.41 6.943386512834614 -10.364100721897806 -4.861622668113576 0 0 0
1759 587 7 -0.82 12.131131167966242 -7.050348179212326 -8.465706703806077 0 1 1
1760 587 8 0.41 12.871755476515258 -7.720821056272799 -8.360984836977265 0 1 1
1761 587 8 0.41 11.788865421947005 -7.000935648894694 -7.500483106822752 0 1 1
1006 336 7 -0.82 11.274627959862467 -9.524421856062505 -10.27837518073378 0 0 0
1008 336 8 0.41 11.155488033065918 -9.465554300522022 10.9357527573447 0 0 -1
1007 336 8 0.41 11.592077893341536 -8.725422336797394 -9.74659106093183 0 0 0
802 268 7 -0.82 11.028826196054649 -5.795944802743589 -6.102862950289821 0 0 0
405 135 8 0.41 11.531847623826582 -10.34935465795197 -8.17155111013092 0 1 0
2074 692 7 -0.82 14.391644786844953 -8.726237825177115 -8.830378905514339 0 0 0
803 268 8 0.41 11.928621633737986 -5.743087382529291 -5.655946484717715 0 0 0
1203 401 8 0.41 12.674687211480357 -9.902184632905023 -5.865314814629217 0 1 0
1251 417 8 0.41 13.583552873237931 -8.242414671553997 10.39076757277389 0 0 -1
1249 417 7 -0.82 14.238954233484225 -8.933404819969775 10.771573178989778 0 0 -1
1250 417 8 0.41 13.772658970756137 -9.063197496424307 -10.59440403491211 0 0 0
2076 692 8 0.41 14.56515124810426 -7.7921116313667715 -8.473600150210297 0 0 0
2041 681 7 -0.82 11.048343341370238 -4.895708949131421 -9.511520941509733 0 0 0
2042 681 8 0.41 11.479387897783912 -5.7723742746457685 -9.137679058673813 0 0 0
1737 579 8 0.41 15.972025192587143 -8.84798908298499 10.633541981010742 0 1 -1
804 268 8 0.41 10.641911930963506 -4.856301614041363 -6.226586946043811 0 0 0
1228 410 7 -0.82 13.758621863984967 -6.919048033936024 -5.494805146273352 -1 0 0
1230 410 8 0.41 14.32382269810056 -6.530243164875797 -6.2790060970816395 -1 0 0
1229 410 8 0.41 13.942243260045633 -6.253992253978412 -4.707763583145451 -1 0 0
21 7 8 0.41 15.669324559477626 -5.528833125463286 -8.287395304310918 0 1 0
1883 628 8 0.41 16.35666094143807 -7.412382049782976 -9.299484062040921 0 0 0
19 7 7 -0.82 15.284376579605645 -5.985174992048645 -7.471361330306257 0 1 0
20 7 8 0.41 15.71081915270545 -5.4411150595612385 -6.693908127077511 0 1 0
706 236 7 -0.82 10.294060137779802 -8.224345717416842 -4.773365321518637 0 0 0
707 236 8 0.41 10.960588452704886 -8.957175460873414 -5.014118480227633 0 0 0
708 236 8 0.41 10.221249537264903 -7.5956983303774495 -5.596467208447331 0 0 0
1583 528 8 0.41 14.22925638981921 -4.193106015827547 -3.2231828291391906 -1 0 0
1582 528 7 -0.82 13.916152029076525 -5.10953166799164 -3.6398061575859524 -1 0 0
2043 681 8 0.41 11.468727708267071 -4.024660881438584 -9.14071999907823 0 0 0
1987 663 7 -0.82 -20.973357176302656 10.719950631322925 -10.126299209469423 1 0 1
1291 431 7 -0.82 21.243780891760945 -8.345320344160307 -8.492872549618562 0 0 0
1292 431 8 0.41 21.088951010597224 -8.822981231613651 -9.37999856936138 0 0 0
1040 347 8 0.41 -19.898479466051707 -5.320020255730238 -9.290365648187828 1 0 1
1293 431 8 0.41 -21.39033619864525 -7.618617262407759 -8.720973140975579 1 0 0
330 110 8 0.41 18.68771129882033 -10.217172793612242 -10.898542941410026 -1 1 0
2075 692 8 0.41 15.164550743418932 -9.35418358173904 -8.49921897922753 0 0 0
1735 579 7 -0.82 16.78918803406496 -8.271180697560313 10.354941290884016 0 1 -1
1736 579 8 0.41 17.379274985724475 -8.330143631603939 -11.05595238050814 0 1 0
1884 628 8 0.41 17.807693976418467 -8.088132360860467 -8.697233557713622 0 0 0
1827 609 8 0.41 16.083639586112522 -10.8500404358212 -7.133494579716643 -1 0 0
10 4 7 -0.82 -21.140939734126384 -9.621076023367308 -6.195716356063504 1 0 1
12 4 8 0.41 -21.075688139814098 -10.651170946208554 -6.250172820929091 1 0 1
11 4 8 0.41 -21.67592660840943 -9.282457704171184 -7.031729170519969 1 0 1
1411 471 7 -0.82 18.226027438540317 10.959942030567989 9.929834803172502 0 0 0
1413 471 8 0.41 18.21339108603956 -10.650931981850231 9.138050796989544 0 1 0
1825 609 7 -0.82 16.365544799752772 -10.21892402501894 -7.909250983471669 -1 0 0
1826 609 8 0.41 17.37969214476436 -10.269581007732974 -7.801482863365196 -1 0 0
1412 471 8 0.41 17.25862285192866 10.803263829247575 10.194083981018915 0 0 0
877 293 7 -0.82 18.899950766082927 -5.058729790167961 -10.091159309491578 0 0 0
879 293 8 0.41 18.48643382474315 -5.918598158825849 -9.693363134527598 0 0 0
1521 507 8 0.41 18.60915641733367 -7.782706097030357 -6.793477555118643 -1 0 0
1520 507 8 0.41 19.473175398538803 -8.814456880288464 -7.710854503992378 -1 0 0
1519 507 7 -0.82 18.569666014974363 -8.711300665489565 -7.229429843503496 -1 0 0
1882 628 7 -0.82 17.369784606517808 -7.405617022383761 -9.298497773702092 0 0 0
453 151 8 0.41 19.714650712802648 -5.144920182582193 -6.042452409221349 0 0 0
451 151 7 -0.82 19.710684031522117 -6.13971276918749 -6.251607345580513 0 0 0
1107 369 8 0.41 19.952654225957392 -4.099367463067499 -9.06704732035709 0 0 1
468 156 8 0.41 20.076772621667768 -5.965201067478057 -3.785412744405047 0 0 0
467 156 8 0.41 21.48460667528987 -5.382562334712346 -4.726978739696446 0 0 0
328 110 7 -0.82 18.92158952713201 -10.054232400344034 -9.91187435888997 -1 1 0
1460 487 8 0.41 -19.473672869876616 -7.094812073557689 -8.221398051617115 0 0 1
1373 458 8 0.41 19.712178664855163 -8.469565134268707 -3.951704787725589 0 0 0
264 88 8 0.41 17.108563567352643 -9.478946058385954 -4.817182212349039 -1 1 0
466 156 7 -0.82 21.015431372342515 -5.54267897868779 -3.8204376143663294 0 0 0
1196 399 8 0.41 -17.656094707056322 -3.3839895153683273 -7.809019346007188 0 0 0
137 46 8 0.41 -19.4776954581325 -4.336863231851726 -5.8239928075735765 0 0 0
848 283 8 0.41 -19.142486497040128 -1.4768764664606904 -5.936833109923835 1 0 1
849 283 8 0.41 -19.5934335720433 -2.281109589065033 -7.377051773983838 1 0 1
42 14 8 0.41 -17.478642082183065 -1.2020711634043346 -4.634731905480846 0 0 1
175 59 7 -0.82 -17.38830850545311 2.824322695836414 -3.6528798838803693 0 0 0
847 283 7 -0.82 -19.53379433959675 -2.346654338877605 -6.356558851810214 1 0 1
41 14 8 0.41 -17.82911559022818 0.3467693760292833 -4.842152980645742 0 0 1
40 14 7 -0.82 -18.275828692386558 -0.5446117408635347 -4.579451344391462 0 0 1
831 277 8 0.41 -17.994672816719767 1.3573598054321474 -6.998005232123174 1 0 0
829 277 7 -0.82 -18.671763298008702 1.335919691760675 -7.806891207076233 1 0 0
1035 345 8 0.41 -18.402853772634355 0.05025426891385983 -8.773064495389843 1 0 1
1033 345 7 -0.82 -18.4029989663351 -0.7997913828554077 -9.355534659022474 1 0 1
1034 345 8 0.41 -18.146345569191038 -0.6130962085190932 -10.356412518698036 1 0 1
1817 606 8 0.41 -18.07718225900184 -4.618461144005009 -9.246334098809792 0 0 0
1935 645 8 0.41 19.35640642457351 0.32294805829829704 -11.053602551425627 0 0 0
830 277 8 0.41 -18.81389823077886 2.2596581310054153 -8.305322280867038 1 0 0
76 26 7 -0.82 -18.814592974651063 3.714795802838272 -8.745635410001396 0 0 1
1818 606 8 0.41 -18.741664373566717 -3.031049390964248 -9.577957452971917 0 0 0
1816 606 7 -0.82 -18.815338970683985 -3.923596750727646 -9.09795346287332 0 0 0
1195 399 7 -0.82 -16.693263185827654 -3.639499592681128 -7.485057333236079 0 0 0
1181 394 8 0.41 -15.760279985314806 -2.840134858418474 -4.6951211892117515 0 0 0
1182 394 8 0.41 -16.210967603761205 -2.292431629918691 -6.197421453644929 0 0 0
1180 394 7 -0.82 -16.186706074437446 -2.051133369808478 -5.186109929048468 0 0 0
902 301 8 0.41 -14.968533050371764 1.5739127073192476 -10.835548423743086 0 0 1
306 102 8 0.41 -18.65718037362514 2.4578347720583382 -5.036313574981559 1 -1 0
304 102 7 -0.82 -19.619756404490996 2.600170841351983 -5.35737625669689 1 -1 0
615 205 8 0.41 -16.400521500417774 1.9418824264683865 -5.336012671668207 0 0 0
613 205 7 -0.82 -16.701645930440975 1.5477729036816852 -6.221440681872348 0 0 0
614 205 8 0.41 -15.798079287426944 1.3873873022389587 -6.699955074535711 0 0 0
177 59 8 0.41 -18.180490960636973 3.249177914811022 -3.1052444458910102 0 0 0
1747 583 7 -0.82 -14.751459586784181 -3.1496339487178266 -9.159231403447183 0 0 1
1749 583 8 0.41 -15.49225379950956 -3.3629401748686396 -8.473022264368996 0 0 1
1748 583 8 0.41 -15.067881810458106 -3.707200131865542 -9.975976399523887 0 0 1
2057 686 8 0.41 -10.898420879393896 0.4120944565341355 -6.312369480296349 0 0 1
1094 365 8 0.41 -12.955318468173171 -3.6759557827201714 -8.997612569774295 0 0 0
1093 365 7 -0.82 -11.971711846828201 -3.9108482249053838 -9.114368897899107 0 0 0
1095 365 8 0.41 -11.434100135807604 -3.88458008326047 -8.207818243207834 0 0 0
2056 686 7 -0.82 -9.973826402173597 0.45714068419864423 -5.879704698005331 0 0 1
2058 686 8 0.41 -9.835775372093664 -0.3074994788662329 -5.191783562033169 0 0 1
13 5 7 -0.82 -14.356713320356024 1.414469486208028 -7.614329255435502 0 0 1
1112 371 8 0.41 -8.1818967164117 -1.1648821569301395 -6.961221415020773 0 0 0
14 5 8 0.41 -14.343602567247979 1.6795203935040908 -8.617544575025974 0 0 1
790 264 7 -0.82 -13.420514602045658 -1.3176582891915407 -7.559473660855781 0 0 0
791 264 8 0.41 -13.84675282990882 -1.9586111255256293 -8.241559088252904 0 0 0
792 264 8 0.41 -13.433310342089303 -1.7146035792563934 -6.610882885924986 0 0 0
15 5 8 0.41 -13.933508369676288 0.46978570869713016 -7.572905860190836 0 0 1
1111 371 7 -0.82 -8.300266860083337 -1.8855924873952263 -7.666759758965402 0 0 0
1113 371 8 0.41 -9.300179745834487 -2.0098782082232907 -7.803135144452244 0 0 0
1327 443 7 -0.82 -13.528628274185774 2.5285917216399367 -5.059991460641392 0 0 0
1329 443 8 0.41 -14.17557548934634 1.9562481373742235 -4.51698268458725 0 0 0
854 285 8 0.41 -14.80950796203295 -0.7013545791346916 -4.813188613887737 0 0 0
438 146 8 0.41 -9.087098935769118 3.2025326479706093 -7.742870503099978 0 0 1
436 146 7 -0.82 -9.532900623807649 3.189746021733721 -8.668179944945416 0 0 1
437 146 8 0.41 -8.671737594194164 3.5107003839597644 -9.087906984344386 0 0 1
1183 395 7 -0.82 -8.618523574737708 2.9074977980103283 -5.945834135352798 0 0 1
1185 395 8 0.41 -7.9281023911239 2.8319743133539506 -5.192380270808152 0 0 1
1194 398 8 0.41 -12.455059005082921 3.7029187100086043 -5.225223345474206 1 -1 0
1193 398 8 0.41 -11.675438118818525 4.871751492250106 -4.506562439734125 1 -1 0
1192 398 7 -0.82 -12.054406950912293 4.6427922863532975 -5.442856634132071 1 -1 0
1661 554 8 0.41 -5.628832136670443 1.0166597628385192 -9.11550298190275 0 0 1
1711 571 7 -0.82 -10.612555034749075 -3.475895771088214 -6.903262797636441 0 0 0
1713 571 8 0.41 -10.559080322015566 -2.980625643542619 -5.95155600231223 0 0 0
852 284 8 0.41 -11.062814993103668 -1.5912085195547165 -4.177730864436881 0 0 -1
850 284 7 -0.82 -10.277057147897215 -2.1622808185611424 -4.619367562964351 0 0 -1
853 285 7 -0.82 -14.487654450962975 0.08544725992174214 -4.212287875107212 0 0 0
1328 443 8 0.41 -13.787679029934473 2.3174067555841296 -6.040664465609226 0 0 0
1726 576 7 -0.82 -11.871130482678495 -0.5366792498734947 -3.537869290712486 0 0 1
1728 576 8 0.41 -12.853185620375443 -0.2857932788309024 -3.785651187108976 0 0 1
901 301 7 -0.82 -14.436054334541389 2.267919503632073 -10.345234323227437 0 0 1
1634 545 8 0.41 -6.8993242204025105 -2.667372635313968 -8.470967456206624 0 0 0
1662 554 8 0.41 -6.779752725437385 0.04243515098430436 -8.686084503982322 0 0 1
1633 545 7 -0.82 -5.994183656426003 -3.1396714985872256 -8.392447286304582 0 0 0
1302 434 8 0.41 -5.539782399190642 -1.0307407957563202 -5.868156975575415 0 0 0
1635 545 8 0.41 -5.519132564574235 -2.7574987927755545 -7.5514139146054635 0 0 0
1300 434 7 -0.82 -4.946705182620963 -1.793617951969014 -6.176090858892209 0 0 0
816 272 8 0.41 -4.635234816535121 -2.8168221469830845 -9.661189438874745 1 0 1
814 272 7 -0.82 -3.645942877946453 -2.902920519956475 -9.906290032276177 1 0 1
815 272 8 0.41 -3.489582927537924 -2.0349937471836563 -10.451819888678827 1 0 1
1570 524 7 -0.82 -7.953218919171418 -3.7052094851542456 11.119816587708991 0 0 -1
1416 472 8 0.41 -6.291812190918526 0.7114532580532407 -6.632691027048256 0 0 0
1414 472 7 -0.82 -6.01184784486418 0.8179135930466517 -5.643194545673989 0 0 0
1415 472 8 0.41 -5.913320554327411 1.782770598815861 -5.314106216085168 0 0 0
143 48 8 0.41 -6.53742344861498 1.9518673805923248 11.097907093308766 0 1 0
144 48 8 0.41 -4.9453374698835795 2.3514109890600325 11.11123081392729 0 1 0
142 48 7 -0.82 -5.587869688191191 1.5914391020381595 -10.927520128749492 0 1 1
1301 434 8 0.41 -4.013324482867276 -1.428296220661836 -5.887507373120558 0 0 0
2122 701 3 0.083 -4.680736684833061 -3.0144651708168384 -3.1828559505024367 0 0 0
888 296 8 0.41 -2.2426375046516576 -2.358569242702763 8.637299208260755 0 0 0
820 274 7 -0.82 -6.993482955822843 -3.7926494726656372 -4.547108991770373 0 0 0
821 274 8 0.41 -6.535853463833698 -2.9394531499867194 -4.847802830821261 0 0 0
726 242 8 0.41 -3.0299901245436445 3.150794104037417 -6.764725379201147 0 0 0
1746 582 8 0.41 -2.9765054388542183 0.20621682485889445 -5.072307790666109 0 0 0
886 296 7 -0.82 -1.3165100676820318 -2.6437940349302247 9.007343435532595 0 0 0
887 296 8 0.41 -1.388402587520215 -2.985465190284031 9.975304431009144 0 0 0
391 131 7 -0.82 -1.0493213869026834 0.3578845330620721 -11.08167432912227 0 0 1
392 131 8 0.41 -1.4013642385613034 -0.4682262500897219 -10.582158572038528 0 0 1
393 131 8 0.41 -0.09199241943822066 0.14599704334614302 10.882459347099756 0 0 0
1660 554 7 -0.82 -6.014934807659715 0.5720847784579695 -8.272812770952063 0 0 1
1136 379 8 0.41 -5.282587200290038 3.7806805945272304 -5.064907733109057 0 0 0
724 242 7 -0.82 -3.970616196646091 3.3604840782230285 -6.512891376344479 0 0 0
1081 361 7 -0.82 -3.9109110506757823 3.2787829333523577 9.905126116902922 0 0 -1
1082 361 8 0.41 -4.253504914846939 3.6267775745971305 10.810588913803072 0 0 -1
353 118 8 0.41 0.2630389033132692 -1.47462639185206 -5.205609532879109 0 1 0
352 118 7 -0.82 0.0022317600772259268 -0.6143004070501528 -4.701209991951002 0 1 0
354 118 8 0.41 0.7169515951296572 -0.1930396765972349 -4.096474384819903 0 1 0
2072 691 8 0.41 1.1321565785034904 -4.252625843144162 -8.690953878785706 0 0 0
2071 691 7 -0.82 1.0099400571006212 -3.7008814687584692 -9.544057540790126 0 0 0
1530 510 8 0.41 -1.3149170560482946 4.484468827397358 -6.070363663809818 0 0 0
300 100 8 0.41 1.2082105675569677 0.5031380879004468 -7.658328970679373 0 0 1
298 100 7 -0.82 1.1140357266165386 -0.496618043571945 -7.792000393772229 0 0 1
1744 582 7 -0.82 -2.6199539818064395 -0.6368935929202104 -5.474300034459338 0 0 0
1745 582 8 0.41 -1.6343394688090067 -0.6751349141742464 -5.1729956904568954 0 0 0
299 100 8 0.41 1.0757671601730292 -0.9736900875146111 -6.880800010687687 0 0 1
1148 383 8 0.41 1.3989506385724544 -2.1558439815962087 -10.261725629723271 0 0 0
1147 383 7 -0.82 1.5505052515551936 -1.119752673290269 -10.360414616354703 0 0 0
2015 672 8 0.41 1.8149121489621647 1.6446651063137017 -2.717402471781181 0 0 0
2014 672 7 -0.82 1.9444919472269608 0.640779652813797 -2.573185524981179 0 0 0
1129 377 7 -0.82 2.421688498737254 3.1594499897460127 -3.141044277367012 0 0 0
1130 377 8 0.41 3.455678839557134 3.0499529413216644 -3.177250919336969 0 0 0
1149 383 8 0.41 1.2589213714906113 -0.683434062443431 -9.461843364132163 0 0 0
476 159 8 0.41 1.7782362598547257 -0.5561019660391286 10.085239849088167 0 0 0
1619 540 8 0.41 3.295012414850781 -2.7335071791543273 10.666056439506105 0 0 -1
1647 549 8 0.41 2.9012364428334827 2.216933364393877 -7.9490127079395725 0 0 1
1645 549 7 -0.82 2.7659360968995017 1.9526664965065175 -6.960497051377329 0 0 1
905 302 8 0.41 3.2971208485084844 -1.2201848433971856 -9.93714141953836 0 0 0
1131 377 8 0.41 1.9298803081724782 3.3467693419093036 -4.0151197221185715 0 0 0
2016 672 8 0.41 2.770775685493014 0.47376030360865945 -1.9903372646704829 0 0 0
1569 523 8 0.41 5.494661030101085 -1.3012727253035132 -3.3697845907348674 0 0 0
1489 497 7 -0.82 6.778498909189651 -2.1649358987816276 -9.060708700808412 0 0 1
365 122 8 0.41 3.724658592650389 -3.682662609341464 -6.596747862117431 0 0 0
276 92 8 0.41 8.697265846062603 -3.8336069760715903 -5.594947154417907 0 0 0
1491 497 8 0.41 7.276810598074082 -1.2963721675700777 -8.881175477304927 0 0 1
1490 497 8 0.41 5.77597900304675 -1.989404348830747 -9.25215932392444 0 0 1
753 251 8 0.41 4.6743195162188265 1.1103974602478752 -9.569786153571323 0 0 0
751 251 7 -0.82 4.0130464042847755 1.872590937185021 -9.757331710081504 0 0 0
275 92 8 0.41 10.044160426683813 -3.109780370643212 -4.896386336937906 0 0 0
1053 351 8 0.41 4.111649136904138 -0.3132996507935771 -5.09614654720381 0 0 1
1051 351 7 -0.82 3.9485491742029524 -0.2956188151878019 -6.1246201602241515 0 0 1